{
    "Hydrogen": {
        "symbol" : "H",
        "atomic_number" : 1,
        "atomic_weight" : 1.00794,
        "density g/cm" : "0.0708 (@ -253°C)",
        "melting_point K" : 14.01,
        "boiling_point K" : 20.28,
        "atomic_radius pm" : 79,
        "covalent_radius pm" : 32,
        "ionic_radius pm" : "",
        "atomic_volume cm3/mol" : 14.1,
        "specific_heat (@20°C J/g mol)" : "14.267 (H-H)",
        "fusion_heat (kJ/mol)" : "0.117 (H-H)",
        "evaporation_heat (kJ/mol)" : "0.904 (H-H)",
        "thermal_conductivity" : 0.1815,
        "pauling_negativity" : 2.20,
        "first_ionizing kJ/mol" : 1311.3,
        "oxidation_states" : "1, -1",
        "electronic_configuration" : "1s¹",
        "lattice_structure" : "HEX",
        "lattice_constant ang" : 3.750
    },
      "Nickel": {
        "symbol" : "Ni",
        "atomic_number" : 28,
        "atomic_weight" : 58.6934,
        "density g/cm" : 8.902,
        "melting_point K" : 1726,
        "boiling_point K" : 3005,
        "atomic_radius pm" : 124,
        "covalent_radius pm" : 115,
        "ionic_radius pm" : "",
        "atomic_volume cm3/mol" : 6.6,
        "specific_heat (@20°C J/g mol)" : 0.443,
        "fusion_heat (kJ/mol)" : 17.61,
        "evaporation_heat (kJ/mol)" : 378.6,
        "thermal_conductivity" : 90.9,
        "pauling_negativity" : 1.91,
        "first_ionizing kJ/mol" : 736.2,
        "oxidation_states" : "3, 2, 0",
        "electronic_configuration" : "[Ar]3d4s²",
        "lattice_structure" : "FCC",
        "lattice_constant ang" : 3.520
    },
      "Phosphorus": {
        "symbol" : "P",
        "atomic_number" : 15,
        "atomic_weight" : 30.973762,
        "density g/cm" : "1.82 (white phosphorus)",
        "melting_point K" : 317.3,
        "boiling_point K" : 553,
        "atomic_radius pm" : 128,
        "covalent_radius pm" : 106,
        "ionic_radius pm" : "",
        "atomic_volume cm3/mol" : 17.0,
        "specific_heat (@20°C J/g mol)" : 0.757,
        "fusion_heat (kJ/mol)" : 2.51,
        "evaporation_heat (kJ/mol)" : 49.8,
        "thermal_conductivity" : "(0.236)",
        "pauling_negativity" : 2.19,
        "first_ionizing kJ/mol" : 1011.2,
        "oxidation_states" : "5, 3, -3",
        "electronic_configuration" : "[Ne]3s²3p³",
        "lattice_structure" : "CUB",
        "lattice_constant ang" : 7.170
    }
}